# vtk DataFile Version 3.0
Vector example
ASCII
DATASET STRUCTURED_GRID
DIMENSIONS 2 3 1
POINTS  6  float
	0.0	-0.0	0.0
	1.0	-0.0	0.0
	0.0	-0.6666666666666666	0.0
	1.0	-0.6666666666666666	0.0
	0.0	-1.3333333333333333	0.0
	1.0	-1.3333333333333333	0.0
POINT_DATA 	6 
 
VECTORS IN float

		8.673617379884035e-19		0		0
		-0.0		0		0
		-0.0		0.00012492816809860313		0
		-0.0		0.00012492816809860313		0
		-0.0		-0.00012492816807017148		0
		-0.0		-0.00012492816807017153		0