# vtk DataFile Version 3.0
Vector example
ASCII
DATASET STRUCTURED_GRID
DIMENSIONS 2 3 1
POINTS  6  float
	0.0	-0.0	0.0
	1.0	-0.0	0.0
	0.0	-0.6666666666666666	0.0
	1.0	-0.6666666666666666	0.0
	0.0	-1.3333333333333333	0.0
	1.0	-1.3333333333333333	0.0
POINT_DATA 	6 
 
VECTORS IN float

		2.8912057932946787e-21		0		0
		-0.0		0		0
		-0.0		4.164371981539977e-07		0
		-0.0		4.164371981539977e-07		0
		-0.0		-4.1643719805922326e-07		0
		-0.0		-4.164371980592234e-07		0