# vtk DataFile Version 3.0
Cube example
ASCII
DATASET STRUCTURED_GRID
DIMENSIONS 2 3 1
POINTS  6  float
	0.0	0.0	0.0
	1.0	0.0	0.0
	0.0	-0.6666666666666666	0.0
	1.0	-0.6666666666666666	0.0
	0.0	-1.3333333333333333	0.0
	1.0	-1.3333333333333333	0.0
POINT_DATA 	6 
 
SCALARS Temp.(K) float
LOOKUP_TABLE default
	300.0
	300.0
	299.98563361962175
	299.98563361962175
	300.0
	300.0